MODEL 5
REMARK VINA RESULT:    -6.614      2.689      5.037
REMARK INTER + INTRA:          -7.879
REMARK INTER:                  -7.772
REMARK INTRA:                  -0.107
REMARK UNBOUND:                -0.105
REMARK  4 active torsions:
REMARK  status: ('A' for Active; 'I' for Inactive)
REMARK    1  A    between atoms: O1_1  and  C9_12 
REMARK    2  A    between atoms: N2_3  and  C6_9 
REMARK    3  A    between atoms: C1_4  and  C3_6 
REMARK    4  A    between atoms: C3_6  and  C6_9 
ROOT
HETATM    1  O1  UNK   900      41.268  27.150 -11.891  1.00  0.00    -0.361 OA
HETATM    2  H12 UNK   900      42.117  26.832 -11.628  1.00  0.00     0.217 HD
ENDROOT
BRANCH   1   3
HETATM    3  C9  UNK   900      40.953  26.913 -13.195  1.00  0.00     0.066 A 
HETATM    4  C7  UNK   900      39.796  27.480 -13.769  1.00  0.00     0.050 A 
HETATM    5  C2  UNK   900      39.459  27.239 -15.121  1.00  0.00     0.001 A 
HETATM    6  C1  UNK   900      38.382  27.653 -15.983  1.00  0.00    -0.029 A 
HETATM    7  C4  UNK   900      40.334  26.404 -15.874  1.00  0.00     0.043 A 
HETATM    8  C5  UNK   900      38.618  27.077 -17.206  1.00  0.00     0.096 A 
HETATM    9  N1  UNK   900      39.784  26.332 -17.136  1.00  0.00    -0.365 N 
HETATM   10  H4  UNK   900      40.161  25.813 -17.914  1.00  0.00     0.165 HD
HETATM   11  C8  UNK   900      41.490  25.835 -15.313  1.00  0.00     0.033 A 
HETATM   12  C10 UNK   900      41.799  26.093 -13.965  1.00  0.00     0.039 A 
BRANCH   6  13
HETATM   13  C3  UNK   900      37.229  28.541 -15.631  1.00  0.00     0.070 C 
BRANCH  13  14
HETATM   14  C6  UNK   900      36.941  29.560 -16.739  1.00  0.00     0.271 C 
BRANCH  14  15
HETATM   15  N2  UNK   900      37.989  30.564 -16.771  1.00  0.00     0.078 N 
HETATM   16  H10 UNK   900      38.018  31.064 -15.892  1.00  0.00     0.312 HD
HETATM   17  H11 UNK   900      37.797  31.252 -17.484  1.00  0.00     0.312 HD
ENDBRANCH  14  15
ENDBRANCH  13  14
ENDBRANCH   6  13
ENDBRANCH   1   3
TORSDOF 4
ENDMDL