MODEL 1
REMARK VINA RESULT:    -7.348      0.000      0.000
REMARK INTER + INTRA:          -8.742
REMARK INTER:                  -8.637
REMARK INTRA:                  -0.105
REMARK UNBOUND:                -0.105
REMARK  4 active torsions:
REMARK  status: ('A' for Active; 'I' for Inactive)
REMARK    1  A    between atoms: O1_1  and  C9_12 
REMARK    2  A    between atoms: N2_3  and  C6_9 
REMARK    3  A    between atoms: C1_4  and  C3_6 
REMARK    4  A    between atoms: C3_6  and  C6_9 
ROOT
HETATM    1  O1  UNK   900      37.765  26.648 -18.646  1.00  0.00    -0.361 OA
HETATM    2  H12 UNK   900      36.866  26.452 -18.856  1.00  0.00     0.217 HD
ENDROOT
BRANCH   1   3
HETATM    3  C9  UNK   900      37.945  27.266 -17.445  1.00  0.00     0.066 A 
HETATM    4  C7  UNK   900      38.851  26.744 -16.499  1.00  0.00     0.050 A 
HETATM    5  C2  UNK   900      39.044  27.376 -15.248  1.00  0.00     0.001 A 
HETATM    6  C1  UNK   900      39.868  27.109 -14.097  1.00  0.00    -0.029 A 
HETATM    7  C4  UNK   900      38.286  28.555 -14.988  1.00  0.00     0.043 A 
HETATM    8  C5  UNK   900      39.600  28.101 -13.187  1.00  0.00     0.096 A 
HETATM    9  N1  UNK   900      38.656  28.962 -13.723  1.00  0.00    -0.365 N 
HETATM   10  H4  UNK   900      38.298  29.769 -13.237  1.00  0.00     0.165 HD
HETATM   11  C8  UNK   900      37.382  29.083 -15.924  1.00  0.00     0.033 A 
HETATM   12  C10 UNK   900      37.212  28.433 -17.160  1.00  0.00     0.039 A 
BRANCH   6  13
HETATM   13  C3  UNK   900      40.833  25.979 -13.916  1.00  0.00     0.070 C 
BRANCH  13  14
HETATM   14  C6  UNK   900      42.277  26.422 -14.177  1.00  0.00     0.271 C 
BRANCH  14  15
HETATM   15  N2  UNK   900      42.836  25.658 -15.277  1.00  0.00     0.078 N 
HETATM   16  H10 UNK   900      43.641  26.138 -15.660  1.00  0.00     0.312 HD
HETATM   17  H11 UNK   900      42.167  25.580 -16.029  1.00  0.00     0.312 HD
ENDBRANCH  14  15
ENDBRANCH  13  14
ENDBRANCH   6  13
ENDBRANCH   1   3
TORSDOF 4
ENDMDL
MODEL 2
REMARK VINA RESULT:    -7.006      2.731      4.608
REMARK INTER + INTRA:          -8.339
REMARK INTER:                  -8.247
REMARK INTRA:                  -0.092
REMARK UNBOUND:                -0.105
REMARK  4 active torsions:
REMARK  status: ('A' for Active; 'I' for Inactive)
REMARK    1  A    between atoms: O1_1  and  C9_12 
REMARK    2  A    between atoms: N2_3  and  C6_9 
REMARK    3  A    between atoms: C1_4  and  C3_6 
REMARK    4  A    between atoms: C3_6  and  C6_9 
ROOT
HETATM    1  O1  UNK   900      44.053  25.201 -14.573  1.00  0.00    -0.361 OA
HETATM    2  H12 UNK   900      44.235  24.469 -14.006  1.00  0.00     0.217 HD
ENDROOT
BRANCH   1   3
HETATM    3  C9  UNK   900      42.941  25.914 -14.238  1.00  0.00     0.066 A 
HETATM    4  C7  UNK   900      41.816  25.933 -15.087  1.00  0.00     0.050 A 
HETATM    5  C2  UNK   900      40.658  26.672 -14.749  1.00  0.00     0.001 A 
HETATM    6  C1  UNK   900      39.381  26.892 -15.377  1.00  0.00    -0.029 A 
HETATM    7  C4  UNK   900      40.680  27.393 -13.521  1.00  0.00     0.043 A 
HETATM    8  C5  UNK   900      38.674  27.720 -14.541  1.00  0.00     0.096 A 
HETATM    9  N1  UNK   900      39.452  28.016 -13.435  1.00  0.00    -0.365 N 
HETATM   10  H4  UNK   900      39.146  28.612 -12.681  1.00  0.00     0.165 HD
HETATM   11  C8  UNK   900      41.795  27.382 -12.666  1.00  0.00     0.033 A 
HETATM   12  C10 UNK   900      42.932  26.636 -13.029  1.00  0.00     0.039 A 
BRANCH   6  13
HETATM   13  C3  UNK   900      38.903  26.332 -16.681  1.00  0.00     0.070 C 
BRANCH  13  14
HETATM   14  C6  UNK   900      38.571  27.441 -17.685  1.00  0.00     0.271 C 
BRANCH  14  15
HETATM   15  N2  UNK   900      39.580  27.482 -18.727  1.00  0.00     0.078 N 
HETATM   16  H10 UNK   900      39.160  27.288 -19.626  1.00  0.00     0.312 HD
HETATM   17  H11 UNK   900      40.273  26.762 -18.576  1.00  0.00     0.312 HD
ENDBRANCH  14  15
ENDBRANCH  13  14
ENDBRANCH   6  13
ENDBRANCH   1   3
TORSDOF 4
ENDMDL
MODEL 3
REMARK VINA RESULT:    -6.817      2.408      4.005
REMARK INTER + INTRA:          -8.118
REMARK INTER:                  -8.468
REMARK INTRA:                   0.350
REMARK UNBOUND:                -0.105
REMARK  4 active torsions:
REMARK  status: ('A' for Active; 'I' for Inactive)
REMARK    1  A    between atoms: O1_1  and  C9_12 
REMARK    2  A    between atoms: N2_3  and  C6_9 
REMARK    3  A    between atoms: C1_4  and  C3_6 
REMARK    4  A    between atoms: C3_6  and  C6_9 
ROOT
HETATM    1  O1  UNK   900      41.463  25.677 -13.883  1.00  0.00    -0.361 OA
HETATM    2  H12 UNK   900      41.917  25.635 -13.056  1.00  0.00     0.217 HD
ENDROOT
BRANCH   1   3
HETATM    3  C9  UNK   900      40.528  26.664 -13.966  1.00  0.00     0.066 A 
HETATM    4  C7  UNK   900      39.711  26.784 -15.109  1.00  0.00     0.050 A 
HETATM    5  C2  UNK   900      38.738  27.807 -15.207  1.00  0.00     0.001 A 
HETATM    6  C1  UNK   900      37.774  28.192 -16.205  1.00  0.00    -0.029 A 
HETATM    7  C4  UNK   900      38.622  28.705 -14.107  1.00  0.00     0.043 A 
HETATM    8  C5  UNK   900      37.112  29.285 -15.706  1.00  0.00     0.096 A 
HETATM    9  N1  UNK   900      37.620  29.588 -14.454  1.00  0.00    -0.365 N 
HETATM   10  H4  UNK   900      37.292  30.356 -13.889  1.00  0.00     0.165 HD
HETATM   11  C8  UNK   900      39.429  28.593 -12.963  1.00  0.00     0.033 A 
HETATM   12  C10 UNK   900      40.388  27.566 -12.894  1.00  0.00     0.039 A 
BRANCH   6  13
HETATM   13  C3  UNK   900      37.529  27.537 -17.529  1.00  0.00     0.070 C 
BRANCH  13  14
HETATM   14  C6  UNK   900      38.738  26.714 -17.985  1.00  0.00     0.271 C 
BRANCH  14  15
HETATM   15  N2  UNK   900      39.598  27.526 -18.827  1.00  0.00     0.078 N 
HETATM   16  H10 UNK   900      40.414  26.996 -19.104  1.00  0.00     0.312 HD
HETATM   17  H11 UNK   900      39.939  28.327 -18.315  1.00  0.00     0.312 HD
ENDBRANCH  14  15
ENDBRANCH  13  14
ENDBRANCH   6  13
ENDBRANCH   1   3
TORSDOF 4
ENDMDL
MODEL 4
REMARK VINA RESULT:    -6.759      1.251      1.557
REMARK INTER + INTRA:          -8.049
REMARK INTER:                  -7.976
REMARK INTRA:                  -0.073
REMARK UNBOUND:                -0.105
REMARK  4 active torsions:
REMARK  status: ('A' for Active; 'I' for Inactive)
REMARK    1  A    between atoms: O1_1  and  C9_12 
REMARK    2  A    between atoms: N2_3  and  C6_9 
REMARK    3  A    between atoms: C1_4  and  C3_6 
REMARK    4  A    between atoms: C3_6  and  C6_9 
ROOT
HETATM    1  O1  UNK   900      38.159  26.586 -18.162  1.00  0.00    -0.361 OA
HETATM    2  H12 UNK   900      38.817  26.181 -18.704  1.00  0.00     0.217 HD
ENDROOT
BRANCH   1   3
HETATM    3  C9  UNK   900      38.591  26.952 -16.923  1.00  0.00     0.066 A 
HETATM    4  C7  UNK   900      39.771  26.401 -16.382  1.00  0.00     0.050 A 
HETATM    5  C2  UNK   900      40.228  26.772 -15.096  1.00  0.00     0.001 A 
HETATM    6  C1  UNK   900      41.357  26.407 -14.280  1.00  0.00    -0.029 A 
HETATM    7  C4  UNK   900      39.447  27.721 -14.375  1.00  0.00     0.043 A 
HETATM    8  C5  UNK   900      41.241  27.120 -13.113  1.00  0.00     0.096 A 
HETATM    9  N1  UNK   900      40.101  27.903 -13.174  1.00  0.00    -0.365 N 
HETATM   10  H4  UNK   900      39.803  28.514 -12.429  1.00  0.00     0.165 HD
HETATM   11  C8  UNK   900      38.270  28.277 -14.904  1.00  0.00     0.033 A 
HETATM   12  C10 UNK   900      37.842  27.889 -16.186  1.00  0.00     0.039 A 
BRANCH   6  13
HETATM   13  C3  UNK   900      42.451  25.445 -14.625  1.00  0.00     0.070 C 
BRANCH  13  14
HETATM   14  C6  UNK   900      43.778  25.839 -13.967  1.00  0.00     0.271 C 
BRANCH  14  15
HETATM   15  N2  UNK   900      44.857  25.034 -14.511  1.00  0.00     0.078 N 
HETATM   16  H10 UNK   900      44.506  24.435 -15.247  1.00  0.00     0.312 HD
HETATM   17  H11 UNK   900      45.233  24.422 -13.802  1.00  0.00     0.312 HD
ENDBRANCH  14  15
ENDBRANCH  13  14
ENDBRANCH   6  13
ENDBRANCH   1   3
TORSDOF 4
ENDMDL
MODEL 5
REMARK VINA RESULT:    -6.614      2.689      5.037
REMARK INTER + INTRA:          -7.879
REMARK INTER:                  -7.772
REMARK INTRA:                  -0.107
REMARK UNBOUND:                -0.105
REMARK  4 active torsions:
REMARK  status: ('A' for Active; 'I' for Inactive)
REMARK    1  A    between atoms: O1_1  and  C9_12 
REMARK    2  A    between atoms: N2_3  and  C6_9 
REMARK    3  A    between atoms: C1_4  and  C3_6 
REMARK    4  A    between atoms: C3_6  and  C6_9 
ROOT
HETATM    1  O1  UNK   900      41.268  27.150 -11.891  1.00  0.00    -0.361 OA
HETATM    2  H12 UNK   900      42.117  26.832 -11.628  1.00  0.00     0.217 HD
ENDROOT
BRANCH   1   3
HETATM    3  C9  UNK   900      40.953  26.913 -13.195  1.00  0.00     0.066 A 
HETATM    4  C7  UNK   900      39.796  27.480 -13.769  1.00  0.00     0.050 A 
HETATM    5  C2  UNK   900      39.459  27.239 -15.121  1.00  0.00     0.001 A 
HETATM    6  C1  UNK   900      38.382  27.653 -15.983  1.00  0.00    -0.029 A 
HETATM    7  C4  UNK   900      40.334  26.404 -15.874  1.00  0.00     0.043 A 
HETATM    8  C5  UNK   900      38.618  27.077 -17.206  1.00  0.00     0.096 A 
HETATM    9  N1  UNK   900      39.784  26.332 -17.136  1.00  0.00    -0.365 N 
HETATM   10  H4  UNK   900      40.161  25.813 -17.914  1.00  0.00     0.165 HD
HETATM   11  C8  UNK   900      41.490  25.835 -15.313  1.00  0.00     0.033 A 
HETATM   12  C10 UNK   900      41.799  26.093 -13.965  1.00  0.00     0.039 A 
BRANCH   6  13
HETATM   13  C3  UNK   900      37.229  28.541 -15.631  1.00  0.00     0.070 C 
BRANCH  13  14
HETATM   14  C6  UNK   900      36.941  29.560 -16.739  1.00  0.00     0.271 C 
BRANCH  14  15
HETATM   15  N2  UNK   900      37.989  30.564 -16.771  1.00  0.00     0.078 N 
HETATM   16  H10 UNK   900      38.018  31.064 -15.892  1.00  0.00     0.312 HD
HETATM   17  H11 UNK   900      37.797  31.252 -17.484  1.00  0.00     0.312 HD
ENDBRANCH  14  15
ENDBRANCH  13  14
ENDBRANCH   6  13
ENDBRANCH   1   3
TORSDOF 4
ENDMDL
MODEL 6
REMARK VINA RESULT:    -6.612      2.252      2.820
REMARK INTER + INTRA:          -7.876
REMARK INTER:                  -7.782
REMARK INTRA:                  -0.094
REMARK UNBOUND:                -0.105
REMARK  4 active torsions:
REMARK  status: ('A' for Active; 'I' for Inactive)
REMARK    1  A    between atoms: O1_1  and  C9_12 
REMARK    2  A    between atoms: N2_3  and  C6_9 
REMARK    3  A    between atoms: C1_4  and  C3_6 
REMARK    4  A    between atoms: C3_6  and  C6_9 
ROOT
HETATM    1  O1  UNK   900      36.717  29.808 -14.152  1.00  0.00    -0.361 OA
HETATM    2  H12 UNK   900      37.256  30.507 -13.818  1.00  0.00     0.217 HD
ENDROOT
BRANCH   1   3
HETATM    3  C9  UNK   900      37.323  29.021 -15.085  1.00  0.00     0.066 A 
HETATM    4  C7  UNK   900      38.440  28.232 -14.743  1.00  0.00     0.050 A 
HETATM    5  C2  UNK   900      39.077  27.413 -15.704  1.00  0.00     0.001 A 
HETATM    6  C1  UNK   900      40.203  26.516 -15.680  1.00  0.00    -0.029 A 
HETATM    7  C4  UNK   900      38.544  27.422 -17.026  1.00  0.00     0.043 A 
HETATM    8  C5  UNK   900      40.328  26.012 -16.951  1.00  0.00     0.096 A 
HETATM    9  N1  UNK   900      39.336  26.556 -17.750  1.00  0.00    -0.365 N 
HETATM   10  H4  UNK   900      39.226  26.337 -18.729  1.00  0.00     0.165 HD
HETATM   11  C8  UNK   900      37.430  28.203 -17.377  1.00  0.00     0.033 A 
HETATM   12  C10 UNK   900      36.817  29.007 -16.399  1.00  0.00     0.039 A 
BRANCH   6  13
HETATM   13  C3  UNK   900      41.073  26.183 -14.508  1.00  0.00     0.070 C 
BRANCH  13  14
HETATM   14  C6  UNK   900      42.435  25.638 -14.951  1.00  0.00     0.271 C 
BRANCH  14  15
HETATM   15  N2  UNK   900      43.483  26.575 -14.587  1.00  0.00     0.078 N 
HETATM   16  H10 UNK   900      44.345  26.332 -15.058  1.00  0.00     0.312 HD
HETATM   17  H11 UNK   900      43.675  26.523 -13.597  1.00  0.00     0.312 HD
ENDBRANCH  14  15
ENDBRANCH  13  14
ENDBRANCH   6  13
ENDBRANCH   1   3
TORSDOF 4
ENDMDL
MODEL 7
REMARK VINA RESULT:    -6.567     15.980     17.152
REMARK INTER + INTRA:          -7.823
REMARK INTER:                  -7.730
REMARK INTRA:                  -0.093
REMARK UNBOUND:                -0.105
REMARK  4 active torsions:
REMARK  status: ('A' for Active; 'I' for Inactive)
REMARK    1  A    between atoms: O1_1  and  C9_12 
REMARK    2  A    between atoms: N2_3  and  C6_9 
REMARK    3  A    between atoms: C1_4  and  C3_6 
REMARK    4  A    between atoms: C3_6  and  C6_9 
ROOT
HETATM    1  O1  UNK   900      49.967  21.876 -24.224  1.00  0.00    -0.361 OA
HETATM    2  H12 UNK   900      50.225  22.763 -24.030  1.00  0.00     0.217 HD
ENDROOT
BRANCH   1   3
HETATM    3  C9  UNK   900      50.942  20.945 -24.023  1.00  0.00     0.066 A 
HETATM    4  C7  UNK   900      51.457  20.712 -22.732  1.00  0.00     0.050 A 
HETATM    5  C2  UNK   900      52.471  19.750 -22.513  1.00  0.00     0.001 A 
HETATM    6  C1  UNK   900      53.190  19.284 -21.355  1.00  0.00    -0.029 A 
HETATM    7  C4  UNK   900      52.946  19.032 -23.649  1.00  0.00     0.043 A 
HETATM    8  C5  UNK   900      54.062  18.322 -21.799  1.00  0.00     0.096 A 
HETATM    9  N1  UNK   900      53.913  18.175 -23.168  1.00  0.00    -0.365 N 
HETATM   10  H4  UNK   900      54.451  17.525 -23.721  1.00  0.00     0.165 HD
HETATM   11  C8  UNK   900      52.439  19.256 -24.940  1.00  0.00     0.033 A 
HETATM   12  C10 UNK   900      51.430  20.219 -25.126  1.00  0.00     0.039 A 
BRANCH   6  13
HETATM   13  C3  UNK   900      53.026  19.746 -19.941  1.00  0.00     0.070 C 
BRANCH  13  14
HETATM   14  C6  UNK   900      54.250  19.396 -19.087  1.00  0.00     0.271 C 
BRANCH  14  15
HETATM   15  N2  UNK   900      53.833  18.667 -17.903  1.00  0.00     0.078 N 
HETATM   16  H10 UNK   900      53.887  17.671 -18.071  1.00  0.00     0.312 HD
HETATM   17  H11 UNK   900      52.867  18.867 -17.687  1.00  0.00     0.312 HD
ENDBRANCH  14  15
ENDBRANCH  13  14
ENDBRANCH   6  13
ENDBRANCH   1   3
TORSDOF 4
ENDMDL
MODEL 8
REMARK VINA RESULT:    -6.404      1.954      2.562
REMARK INTER + INTRA:          -7.632
REMARK INTER:                  -7.509
REMARK INTRA:                  -0.123
REMARK UNBOUND:                -0.105
REMARK  4 active torsions:
REMARK  status: ('A' for Active; 'I' for Inactive)
REMARK    1  A    between atoms: O1_1  and  C9_12 
REMARK    2  A    between atoms: N2_3  and  C6_9 
REMARK    3  A    between atoms: C1_4  and  C3_6 
REMARK    4  A    between atoms: C3_6  and  C6_9 
ROOT
HETATM    1  O1  UNK   900      41.290  25.379 -17.899  1.00  0.00    -0.361 OA
HETATM    2  H12 UNK   900      40.671  25.287 -18.606  1.00  0.00     0.217 HD
ENDROOT
BRANCH   1   3
HETATM    3  C9  UNK   900      40.783  25.957 -16.774  1.00  0.00     0.066 A 
HETATM    4  C7  UNK   900      41.575  26.089 -15.615  1.00  0.00     0.050 A 
HETATM    5  C2  UNK   900      41.057  26.686 -14.441  1.00  0.00     0.001 A 
HETATM    6  C1  UNK   900      41.587  26.964 -13.131  1.00  0.00    -0.029 A 
HETATM    7  C4  UNK   900      39.708  27.143 -14.481  1.00  0.00     0.043 A 
HETATM    8  C5  UNK   900      40.577  27.567 -12.423  1.00  0.00     0.096 A 
HETATM    9  N1  UNK   900      39.458  27.671 -13.232  1.00  0.00    -0.365 N 
HETATM   10  H4  UNK   900      38.587  28.078 -12.929  1.00  0.00     0.165 HD
HETATM   11  C8  UNK   900      38.910  27.017 -15.631  1.00  0.00     0.033 A 
HETATM   12  C10 UNK   900      39.453  26.419 -16.783  1.00  0.00     0.039 A 
BRANCH   6  13
HETATM   13  C3  UNK   900      42.965  26.666 -12.629  1.00  0.00     0.070 C 
BRANCH  13  14
HETATM   14  C6  UNK   900      44.024  27.503 -13.354  1.00  0.00     0.271 C 
BRANCH  14  15
HETATM   15  N2  UNK   900      44.920  26.633 -14.092  1.00  0.00     0.078 N 
HETATM   16  H10 UNK   900      45.530  27.182 -14.684  1.00  0.00     0.312 HD
HETATM   17  H11 UNK   900      44.397  26.027 -14.708  1.00  0.00     0.312 HD
ENDBRANCH  14  15
ENDBRANCH  13  14
ENDBRANCH   6  13
ENDBRANCH   1   3
TORSDOF 4
ENDMDL
MODEL 9
REMARK VINA RESULT:    -6.295      2.248      2.804
REMARK INTER + INTRA:          -7.504
REMARK INTER:                  -7.431
REMARK INTRA:                  -0.073
REMARK UNBOUND:                -0.105
REMARK  4 active torsions:
REMARK  status: ('A' for Active; 'I' for Inactive)
REMARK    1  A    between atoms: O1_1  and  C9_12 
REMARK    2  A    between atoms: N2_3  and  C6_9 
REMARK    3  A    between atoms: C1_4  and  C3_6 
REMARK    4  A    between atoms: C3_6  and  C6_9 
ROOT
HETATM    1  O1  UNK   900      36.750  29.340 -14.821  1.00  0.00    -0.361 OA
HETATM    2  H12 UNK   900      37.110  29.762 -14.057  1.00  0.00     0.217 HD
ENDROOT
BRANCH   1   3
HETATM    3  C9  UNK   900      37.621  28.529 -15.484  1.00  0.00     0.066 A 
HETATM    4  C7  UNK   900      38.717  27.950 -14.812  1.00  0.00     0.050 A 
HETATM    5  C2  UNK   900      39.628  27.109 -15.492  1.00  0.00     0.001 A 
HETATM    6  C1  UNK   900      40.812  26.383 -15.109  1.00  0.00    -0.029 A 
HETATM    7  C4  UNK   900      39.391  26.873 -16.877  1.00  0.00     0.043 A 
HETATM    8  C5  UNK   900      41.257  25.741 -16.238  1.00  0.00     0.096 A 
HETATM    9  N1  UNK   900      40.407  26.037 -17.290  1.00  0.00    -0.365 N 
HETATM   10  H4  UNK   900      40.532  25.681 -18.225  1.00  0.00     0.165 HD
HETATM   11  C8  UNK   900      38.302  27.444 -17.557  1.00  0.00     0.033 A 
HETATM   12  C10 UNK   900      37.412  28.277 -16.853  1.00  0.00     0.039 A 
BRANCH   6  13
HETATM   13  C3  UNK   900      41.441  26.326 -13.752  1.00  0.00     0.070 C 
BRANCH  13  14
HETATM   14  C6  UNK   900      42.920  26.728 -13.798  1.00  0.00     0.271 C 
BRANCH  14  15
HETATM   15  N2  UNK   900      43.483  26.687 -12.461  1.00  0.00     0.078 N 
HETATM   16  H10 UNK   900      43.577  25.729 -12.152  1.00  0.00     0.312 HD
HETATM   17  H11 UNK   900      42.864  27.139 -11.803  1.00  0.00     0.312 HD
ENDBRANCH  14  15
ENDBRANCH  13  14
ENDBRANCH   6  13
ENDBRANCH   1   3
TORSDOF 4
ENDMDL
MODEL 10
REMARK VINA RESULT:    -6.260      2.760      4.153
REMARK INTER + INTRA:          -7.462
REMARK INTER:                  -7.387
REMARK INTRA:                  -0.076
REMARK UNBOUND:                -0.105
REMARK  4 active torsions:
REMARK  status: ('A' for Active; 'I' for Inactive)
REMARK    1  A    between atoms: O1_1  and  C9_12 
REMARK    2  A    between atoms: N2_3  and  C6_9 
REMARK    3  A    between atoms: C1_4  and  C3_6 
REMARK    4  A    between atoms: C3_6  and  C6_9 
ROOT
HETATM    1  O1  UNK   900      40.892  25.642 -17.484  1.00  0.00    -0.361 OA
HETATM    2  H12 UNK   900      40.265  24.940 -17.551  1.00  0.00     0.217 HD
ENDROOT
BRANCH   1   3
HETATM    3  C9  UNK   900      41.207  26.002 -16.208  1.00  0.00     0.066 A 
HETATM    4  C7  UNK   900      42.457  25.659 -15.653  1.00  0.00     0.050 A 
HETATM    5  C2  UNK   900      42.792  26.026 -14.328  1.00  0.00     0.001 A 
HETATM    6  C1  UNK   900      43.947  25.837 -13.489  1.00  0.00    -0.029 A 
HETATM    7  C4  UNK   900      41.817  26.752 -13.585  1.00  0.00     0.043 A 
HETATM    8  C5  UNK   900      43.658  26.434 -12.288  1.00  0.00     0.096 A 
HETATM    9  N1  UNK   900      42.386  26.978 -12.349  1.00  0.00    -0.365 N 
HETATM   10  H4  UNK   900      41.951  27.468 -11.582  1.00  0.00     0.165 HD
HETATM   11  C8  UNK   900      40.569  27.100 -14.129  1.00  0.00     0.033 A 
HETATM   12  C10 UNK   900      40.264  26.721 -15.449  1.00  0.00     0.039 A 
BRANCH   6  13
HETATM   13  C3  UNK   900      45.221  25.135 -13.845  1.00  0.00     0.070 C 
BRANCH  13  14
HETATM   14  C6  UNK   900      46.423  26.086 -13.796  1.00  0.00     0.271 C 
BRANCH  14  15
HETATM   15  N2  UNK   900      47.364  25.745 -14.847  1.00  0.00     0.078 N 
HETATM   16  H10 UNK   900      47.887  24.918 -14.591  1.00  0.00     0.312 HD
HETATM   17  H11 UNK   900      48.042  26.484 -14.967  1.00  0.00     0.312 HD
ENDBRANCH  14  15
ENDBRANCH  13  14
ENDBRANCH   6  13
ENDBRANCH   1   3
TORSDOF 4
ENDMDL
MODEL 11
REMARK VINA RESULT:    -6.253     16.328     17.978
REMARK INTER + INTRA:          -7.454
REMARK INTER:                  -7.381
REMARK INTRA:                  -0.073
REMARK UNBOUND:                -0.105
REMARK  4 active torsions:
REMARK  status: ('A' for Active; 'I' for Inactive)
REMARK    1  A    between atoms: O1_1  and  C9_12 
REMARK    2  A    between atoms: N2_3  and  C6_9 
REMARK    3  A    between atoms: C1_4  and  C3_6 
REMARK    4  A    between atoms: C3_6  and  C6_9 
ROOT
HETATM    1  O1  UNK   900      54.075  17.015 -22.386  1.00  0.00    -0.361 OA
HETATM    2  H12 UNK   900      54.829  16.951 -22.951  1.00  0.00     0.217 HD
ENDROOT
BRANCH   1   3
HETATM    3  C9  UNK   900      53.322  18.135 -22.571  1.00  0.00     0.066 A 
HETATM    4  C7  UNK   900      52.803  18.450 -23.844  1.00  0.00     0.050 A 
HETATM    5  C2  UNK   900      52.022  19.612 -24.047  1.00  0.00     0.001 A 
HETATM    6  C1  UNK   900      51.364  20.201 -25.184  1.00  0.00    -0.029 A 
HETATM    7  C4  UNK   900      51.784  20.445 -22.915  1.00  0.00     0.043 A 
HETATM    8  C5  UNK   900      50.759  21.348 -24.734  1.00  0.00     0.096 A 
HETATM    9  N1  UNK   900      51.012  21.489 -23.379  1.00  0.00    -0.365 N 
HETATM   10  H4  UNK   900      50.672  22.260 -22.826  1.00  0.00     0.165 HD
HETATM   11  C8  UNK   900      52.295  20.140 -21.642  1.00  0.00     0.033 A 
HETATM   12  C10 UNK   900      53.068  18.977 -21.472  1.00  0.00     0.039 A 
BRANCH   6  13
HETATM   13  C3  UNK   900      51.334  19.677 -26.586  1.00  0.00     0.070 C 
BRANCH  13  14
HETATM   14  C6  UNK   900      52.743  19.559 -27.176  1.00  0.00     0.271 C 
BRANCH  14  15
HETATM   15  N2  UNK   900      53.010  18.182 -27.546  1.00  0.00     0.078 N 
HETATM   16  H10 UNK   900      52.241  17.590 -27.262  1.00  0.00     0.312 HD
HETATM   17  H11 UNK   900      53.827  17.838 -27.061  1.00  0.00     0.312 HD
ENDBRANCH  14  15
ENDBRANCH  13  14
ENDBRANCH   6  13
ENDBRANCH   1   3
TORSDOF 4
ENDMDL
MODEL 12
REMARK VINA RESULT:    -6.252     15.889     17.619
REMARK INTER + INTRA:          -7.453
REMARK INTER:                  -7.449
REMARK INTRA:                  -0.004
REMARK UNBOUND:                -0.105
REMARK  4 active torsions:
REMARK  status: ('A' for Active; 'I' for Inactive)
REMARK    1  A    between atoms: O1_1  and  C9_12 
REMARK    2  A    between atoms: N2_3  and  C6_9 
REMARK    3  A    between atoms: C1_4  and  C3_6 
REMARK    4  A    between atoms: C3_6  and  C6_9 
ROOT
HETATM    1  O1  UNK   900      53.207  18.470 -27.799  1.00  0.00    -0.361 OA
HETATM    2  H12 UNK   900      52.816  18.209 -28.617  1.00  0.00     0.217 HD
ENDROOT
BRANCH   1   3
HETATM    3  C9  UNK   900      52.400  19.219 -26.997  1.00  0.00     0.066 A 
HETATM    4  C7  UNK   900      52.667  19.338 -25.618  1.00  0.00     0.050 A 
HETATM    5  C2  UNK   900      51.833  20.111 -24.777  1.00  0.00     0.001 A 
HETATM    6  C1  UNK   900      51.830  20.427 -23.371  1.00  0.00    -0.029 A 
HETATM    7  C4  UNK   900      50.718  20.761 -25.381  1.00  0.00     0.043 A 
HETATM    8  C5  UNK   900      50.743  21.238 -23.157  1.00  0.00     0.096 A 
HETATM    9  N1  UNK   900      50.083  21.434 -24.358  1.00  0.00    -0.365 N 
HETATM   10  H4  UNK   900      49.249  21.994 -24.452  1.00  0.00     0.165 HD
HETATM   11  C8  UNK   900      50.443  20.650 -26.754  1.00  0.00     0.033 A 
HETATM   12  C10 UNK   900      51.291  19.874 -27.565  1.00  0.00     0.039 A 
BRANCH   6  13
HETATM   13  C3  UNK   900      52.813  19.973 -22.338  1.00  0.00     0.070 C 
BRANCH  13  14
HETATM   14  C6  UNK   900      52.981  18.450 -22.349  1.00  0.00     0.271 C 
BRANCH  14  15
HETATM   15  N2  UNK   900      54.372  18.109 -22.586  1.00  0.00     0.078 N 
HETATM   16  H10 UNK   900      54.913  18.949 -22.747  1.00  0.00     0.312 HD
HETATM   17  H11 UNK   900      54.461  17.549 -23.422  1.00  0.00     0.312 HD
ENDBRANCH  14  15
ENDBRANCH  13  14
ENDBRANCH   6  13
ENDBRANCH   1   3
TORSDOF 4
ENDMDL
MODEL 13
REMARK VINA RESULT:    -6.213     16.110     17.668
REMARK INTER + INTRA:          -7.407
REMARK INTER:                  -7.322
REMARK INTRA:                  -0.085
REMARK UNBOUND:                -0.105
REMARK  4 active torsions:
REMARK  status: ('A' for Active; 'I' for Inactive)
REMARK    1  A    between atoms: O1_1  and  C9_12 
REMARK    2  A    between atoms: N2_3  and  C6_9 
REMARK    3  A    between atoms: C1_4  and  C3_6 
REMARK    4  A    between atoms: C3_6  and  C6_9 
ROOT
HETATM    1  O1  UNK   900      54.111  20.396 -17.947  1.00  0.00    -0.361 OA
HETATM    2  H12 UNK   900      53.303  20.732 -17.595  1.00  0.00     0.217 HD
ENDROOT
BRANCH   1   3
HETATM    3  C9  UNK   900      53.986  19.761 -19.147  1.00  0.00     0.066 A 
HETATM    4  C7  UNK   900      53.309  20.378 -20.218  1.00  0.00     0.050 A 
HETATM    5  C2  UNK   900      53.172  19.727 -21.466  1.00  0.00     0.001 A 
HETATM    6  C1  UNK   900      52.559  20.071 -22.724  1.00  0.00    -0.029 A 
HETATM    7  C4  UNK   900      53.745  18.429 -21.592  1.00  0.00     0.043 A 
HETATM    8  C5  UNK   900      52.765  19.004 -23.562  1.00  0.00     0.096 A 
HETATM    9  N1  UNK   900      53.473  18.027 -22.883  1.00  0.00    -0.365 N 
HETATM   10  H4  UNK   900      53.741  17.146 -23.294  1.00  0.00     0.165 HD
HETATM   11  C8  UNK   900      54.423  17.805 -20.532  1.00  0.00     0.033 A 
HETATM   12  C10 UNK   900      54.543  18.478 -19.302  1.00  0.00     0.039 A 
BRANCH   6  13
HETATM   13  C3  UNK   900      51.839  21.339 -23.064  1.00  0.00     0.070 C 
BRANCH  13  14
HETATM   14  C6  UNK   900      51.020  21.195 -24.351  1.00  0.00     0.271 C 
BRANCH  14  15
HETATM   15  N2  UNK   900      49.669  21.679 -24.133  1.00  0.00     0.078 N 
HETATM   16  H10 UNK   900      49.170  21.728 -25.011  1.00  0.00     0.312 HD
HETATM   17  H11 UNK   900      49.686  22.618 -23.762  1.00  0.00     0.312 HD
ENDBRANCH  14  15
ENDBRANCH  13  14
ENDBRANCH   6  13
ENDBRANCH   1   3
TORSDOF 4
ENDMDL
MODEL 14
REMARK VINA RESULT:    -6.003     16.545     17.208
REMARK INTER + INTRA:          -7.160
REMARK INTER:                  -7.100
REMARK INTRA:                  -0.060
REMARK UNBOUND:                -0.105
REMARK  4 active torsions:
REMARK  status: ('A' for Active; 'I' for Inactive)
REMARK    1  A    between atoms: O1_1  and  C9_12 
REMARK    2  A    between atoms: N2_3  and  C6_9 
REMARK    3  A    between atoms: C1_4  and  C3_6 
REMARK    4  A    between atoms: C3_6  and  C6_9 
ROOT
HETATM    1  O1  UNK   900      52.045  18.093 -25.559  1.00  0.00    -0.361 OA
HETATM    2  H12 UNK   900      52.323  17.219 -25.337  1.00  0.00     0.217 HD
ENDROOT
BRANCH   1   3
HETATM    3  C9  UNK   900      52.229  19.014 -24.572  1.00  0.00     0.066 A 
HETATM    4  C7  UNK   900      52.797  18.640 -23.337  1.00  0.00     0.050 A 
HETATM    5  C2  UNK   900      52.991  19.588 -22.305  1.00  0.00     0.001 A 
HETATM    6  C1  UNK   900      53.527  19.533 -20.970  1.00  0.00    -0.029 A 
HETATM    7  C4  UNK   900      52.589  20.930 -22.567  1.00  0.00     0.043 A 
HETATM    8  C5  UNK   900      53.442  20.805 -20.462  1.00  0.00     0.096 A 
HETATM    9  N1  UNK   900      52.881  21.635 -21.419  1.00  0.00    -0.365 N 
HETATM   10  H4  UNK   900      52.715  22.620 -21.275  1.00  0.00     0.165 HD
HETATM   11  C8  UNK   900      52.023  21.314 -23.794  1.00  0.00     0.033 A 
HETATM   12  C10 UNK   900      51.843  20.348 -24.802  1.00  0.00     0.039 A 
BRANCH   6  13
HETATM   13  C3  UNK   900      54.078  18.333 -20.263  1.00  0.00     0.070 C 
BRANCH  13  14
HETATM   14  C6  UNK   900      54.765  18.718 -18.948  1.00  0.00     0.271 C 
BRANCH  14  15
HETATM   15  N2  UNK   900      53.847  18.535 -17.839  1.00  0.00     0.078 N 
HETATM   16  H10 UNK   900      53.206  19.315 -17.786  1.00  0.00     0.312 HD
HETATM   17  H11 UNK   900      54.350  18.520 -16.963  1.00  0.00     0.312 HD
ENDBRANCH  14  15
ENDBRANCH  13  14
ENDBRANCH   6  13
ENDBRANCH   1   3
TORSDOF 4
ENDMDL
