MODEL 1
REMARK VINA RESULT:    -7.276      0.000      0.000
REMARK INTER + INTRA:          -8.645
REMARK INTER:                  -8.552
REMARK INTRA:                  -0.092
REMARK UNBOUND:                -0.092
REMARK  4 active torsions:
REMARK  status: ('A' for Active; 'I' for Inactive)
REMARK    1  A    between atoms: O1_1  and  C9_12 
REMARK    2  A    between atoms: N2_3  and  C5_8 
REMARK    3  A    between atoms: C1_4  and  C2_5 
REMARK    4  A    between atoms: C2_5  and  C5_8 
ROOT
HETATM    1  O1  UNK   900      37.973  26.710 -18.462  1.00  0.00    -0.361 OA
HETATM    2  H13 UNK   900      38.164  25.782 -18.469  1.00  0.00     0.217 HD
ENDROOT
BRANCH   1   3
HETATM    3  C9  UNK   900      38.133  27.306 -17.248  1.00  0.00     0.066 A 
HETATM    4  C7  UNK   900      39.063  26.759 -16.346  1.00  0.00     0.050 A 
HETATM    5  C3  UNK   900      39.278  27.339 -15.074  1.00  0.00     0.001 A 
HETATM    6  C1  UNK   900      40.140  27.037 -13.960  1.00  0.00    -0.029 A 
HETATM    7  C4  UNK   900      38.503  28.488 -14.744  1.00  0.00     0.043 A 
HETATM    8  C6  UNK   900      39.869  27.975 -12.995  1.00  0.00     0.096 A 
HETATM    9  N1  UNK   900      38.897  28.841 -13.471  1.00  0.00    -0.365 N 
HETATM   10  H6  UNK   900      38.521  29.613 -12.937  1.00  0.00     0.165 HD
HETATM   11  C8  UNK   900      37.568  29.040 -15.637  1.00  0.00     0.033 A 
HETATM   12  C10 UNK   900      37.383  28.445 -16.899  1.00  0.00     0.039 A 
BRANCH   6  13
HETATM   13  C2  UNK   900      41.131  25.920 -13.876  1.00  0.00     0.068 C 
BRANCH  13  14
HETATM   14  C5  UNK   900      42.552  26.410 -14.197  1.00  0.00     0.234 C 
BRANCH  14  15
HETATM   15  N2  UNK   900      43.255  25.493 -15.113  1.00  0.00    -0.079 N 
HETATM   16  H9  UNK   900      43.685  26.016 -15.864  1.00  0.00     0.274 HD
HETATM   17  H10 UNK   900      42.596  24.835 -15.505  1.00  0.00     0.274 HD
HETATM   18  H11 UNK   900      43.967  24.985 -14.609  1.00  0.00     0.274 HD
ENDBRANCH  14  15
ENDBRANCH  13  14
ENDBRANCH   6  13
ENDBRANCH   1   3
TORSDOF 4
ENDMDL
MODEL 2
REMARK VINA RESULT:    -7.191      1.033      1.033
REMARK INTER + INTRA:          -8.545
REMARK INTER:                  -8.442
REMARK INTRA:                  -0.102
REMARK UNBOUND:                -0.092
REMARK  4 active torsions:
REMARK  status: ('A' for Active; 'I' for Inactive)
REMARK    1  A    between atoms: O1_1  and  C9_12 
REMARK    2  A    between atoms: N2_3  and  C5_8 
REMARK    3  A    between atoms: C1_4  and  C2_5 
REMARK    4  A    between atoms: C2_5  and  C5_8 
ROOT
HETATM    1  O1  UNK   900      37.667  26.572 -18.745  1.00  0.00    -0.361 OA
HETATM    2  H13 UNK   900      36.802  26.222 -18.911  1.00  0.00     0.217 HD
ENDROOT
BRANCH   1   3
HETATM    3  C9  UNK   900      37.772  27.283 -17.589  1.00  0.00     0.066 A 
HETATM    4  C7  UNK   900      38.627  26.805 -16.579  1.00  0.00     0.050 A 
HETATM    5  C3  UNK   900      38.781  27.505 -15.359  1.00  0.00     0.001 A 
HETATM    6  C1  UNK   900      39.562  27.295 -14.168  1.00  0.00    -0.029 A 
HETATM    7  C4  UNK   900      38.026  28.702 -15.196  1.00  0.00     0.043 A 
HETATM    8  C6  UNK   900      39.264  28.332 -13.320  1.00  0.00     0.096 A 
HETATM    9  N1  UNK   900      38.352  29.171 -13.941  1.00  0.00    -0.365 N 
HETATM   10  H6  UNK   900      37.969  30.003 -13.512  1.00  0.00     0.165 HD
HETATM   11  C8  UNK   900      37.167  29.185 -16.198  1.00  0.00     0.033 A 
HETATM   12  C10 UNK   900      37.040  28.471 -17.404  1.00  0.00     0.039 A 
BRANCH   6  13
HETATM   13  C2  UNK   900      40.509  26.166 -13.909  1.00  0.00     0.068 C 
BRANCH  13  14
HETATM   14  C5  UNK   900      41.970  26.642 -13.947  1.00  0.00     0.234 C 
BRANCH  14  15
HETATM   15  N2  UNK   900      42.498  26.905 -12.596  1.00  0.00    -0.079 N 
HETATM   16  H9  UNK   900      42.504  27.900 -12.414  1.00  0.00     0.274 HD
HETATM   17  H10 UNK   900      43.441  26.551 -12.527  1.00  0.00     0.274 HD
HETATM   18  H11 UNK   900      41.921  26.442 -11.908  1.00  0.00     0.274 HD
ENDBRANCH  14  15
ENDBRANCH  13  14
ENDBRANCH   6  13
ENDBRANCH   1   3
TORSDOF 4
ENDMDL
MODEL 3
REMARK VINA RESULT:    -7.085      2.736      4.589
REMARK INTER + INTRA:          -8.420
REMARK INTER:                  -8.334
REMARK INTRA:                  -0.086
REMARK UNBOUND:                -0.092
REMARK  4 active torsions:
REMARK  status: ('A' for Active; 'I' for Inactive)
REMARK    1  A    between atoms: O1_1  and  C9_12 
REMARK    2  A    between atoms: N2_3  and  C5_8 
REMARK    3  A    between atoms: C1_4  and  C2_5 
REMARK    4  A    between atoms: C2_5  and  C5_8 
ROOT
HETATM    1  O1  UNK   900      44.174  25.081 -14.713  1.00  0.00    -0.361 OA
HETATM    2  H13 UNK   900      44.245  24.995 -15.655  1.00  0.00     0.217 HD
ENDROOT
BRANCH   1   3
HETATM    3  C9  UNK   900      43.108  25.819 -14.297  1.00  0.00     0.066 A 
HETATM    4  C7  UNK   900      41.959  25.860 -15.106  1.00  0.00     0.050 A 
HETATM    5  C3  UNK   900      40.819  26.605 -14.722  1.00  0.00     0.001 A 
HETATM    6  C1  UNK   900      39.521  26.834 -15.302  1.00  0.00    -0.029 A 
HETATM    7  C4  UNK   900      40.893  27.318 -13.491  1.00  0.00     0.043 A 
HETATM    8  C6  UNK   900      38.854  27.672 -14.443  1.00  0.00     0.096 A 
HETATM    9  N1  UNK   900      39.675  27.952 -13.362  1.00  0.00    -0.365 N 
HETATM   10  H6  UNK   900      39.412  28.558 -12.597  1.00  0.00     0.165 HD
HETATM   11  C8  UNK   900      42.039  27.286 -12.677  1.00  0.00     0.033 A 
HETATM   12  C10 UNK   900      43.154  26.530 -13.082  1.00  0.00     0.039 A 
BRANCH   6  13
HETATM   13  C2  UNK   900      39.007  26.270 -16.589  1.00  0.00     0.068 C 
BRANCH  13  14
HETATM   14  C5  UNK   900      38.621  27.386 -17.573  1.00  0.00     0.234 C 
BRANCH  14  15
HETATM   15  N2  UNK   900      39.550  27.457 -18.715  1.00  0.00    -0.079 N 
HETATM   16  H9  UNK   900      39.427  28.331 -19.207  1.00  0.00     0.274 HD
HETATM   17  H10 UNK   900      39.364  26.692 -19.349  1.00  0.00     0.274 HD
HETATM   18  H11 UNK   900      40.502  27.389 -18.386  1.00  0.00     0.274 HD
ENDBRANCH  14  15
ENDBRANCH  13  14
ENDBRANCH   6  13
ENDBRANCH   1   3
TORSDOF 4
ENDMDL
MODEL 4
REMARK VINA RESULT:    -6.740      2.502      4.035
REMARK INTER + INTRA:          -8.014
REMARK INTER:                  -8.280
REMARK INTRA:                   0.265
REMARK UNBOUND:                -0.092
REMARK  4 active torsions:
REMARK  status: ('A' for Active; 'I' for Inactive)
REMARK    1  A    between atoms: O1_1  and  C9_12 
REMARK    2  A    between atoms: N2_3  and  C5_8 
REMARK    3  A    between atoms: C1_4  and  C2_5 
REMARK    4  A    between atoms: C2_5  and  C5_8 
ROOT
HETATM    1  O1  UNK   900      41.383  25.845 -13.663  1.00  0.00    -0.361 OA
HETATM    2  H13 UNK   900      41.584  25.349 -14.445  1.00  0.00     0.217 HD
ENDROOT
BRANCH   1   3
HETATM    3  C9  UNK   900      40.445  26.816 -13.840  1.00  0.00     0.066 A 
HETATM    4  C7  UNK   900      39.683  26.810 -15.023  1.00  0.00     0.050 A 
HETATM    5  C3  UNK   900      38.690  27.788 -15.259  1.00  0.00     0.001 A 
HETATM    6  C1  UNK   900      37.760  28.043 -16.329  1.00  0.00    -0.029 A 
HETATM    7  C4  UNK   900      38.506  28.783 -14.256  1.00  0.00     0.043 A 
HETATM    8  C6  UNK   900      37.057  29.168 -15.972  1.00  0.00     0.096 A 
HETATM    9  N1  UNK   900      37.502  29.599 -14.732  1.00  0.00    -0.365 N 
HETATM   10  H6  UNK   900      37.144  30.419 -14.260  1.00  0.00     0.165 HD
HETATM   11  C8  UNK   900      39.264  28.800 -13.073  1.00  0.00     0.033 A 
HETATM   12  C10 UNK   900      40.240  27.809 -12.863  1.00  0.00     0.039 A 
BRANCH   6  13
HETATM   13  C2  UNK   900      37.597  27.241 -17.581  1.00  0.00     0.068 C 
BRANCH  13  14
HETATM   14  C5  UNK   900      38.936  26.639 -18.036  1.00  0.00     0.234 C 
BRANCH  14  15
HETATM   15  N2  UNK   900      39.699  27.573 -18.883  1.00  0.00    -0.079 N 
HETATM   16  H9  UNK   900      40.490  27.098 -19.297  1.00  0.00     0.274 HD
HETATM   17  H10 UNK   900      40.033  28.343 -18.321  1.00  0.00     0.274 HD
HETATM   18  H11 UNK   900      39.104  27.934 -19.615  1.00  0.00     0.274 HD
ENDBRANCH  14  15
ENDBRANCH  13  14
ENDBRANCH   6  13
ENDBRANCH   1   3
TORSDOF 4
ENDMDL
MODEL 5
REMARK VINA RESULT:    -6.678      2.271      2.856
REMARK INTER + INTRA:          -7.942
REMARK INTER:                  -7.857
REMARK INTRA:                  -0.085
REMARK UNBOUND:                -0.092
REMARK  4 active torsions:
REMARK  status: ('A' for Active; 'I' for Inactive)
REMARK    1  A    between atoms: O1_1  and  C9_12 
REMARK    2  A    between atoms: N2_3  and  C5_8 
REMARK    3  A    between atoms: C1_4  and  C2_5 
REMARK    4  A    between atoms: C2_5  and  C5_8 
ROOT
HETATM    1  O1  UNK   900      36.702  29.942 -14.069  1.00  0.00    -0.361 OA
HETATM    2  H13 UNK   900      36.305  30.740 -14.390  1.00  0.00     0.217 HD
ENDROOT
BRANCH   1   3
HETATM    3  C9  UNK   900      37.243  29.155 -15.040  1.00  0.00     0.066 A 
HETATM    4  C7  UNK   900      38.368  28.372 -14.725  1.00  0.00     0.050 A 
HETATM    5  C3  UNK   900      38.969  27.532 -15.690  1.00  0.00     0.001 A 
HETATM    6  C1  UNK   900      40.087  26.624 -15.681  1.00  0.00    -0.029 A 
HETATM    7  C4  UNK   900      38.393  27.523 -16.993  1.00  0.00     0.043 A 
HETATM    8  C6  UNK   900      40.177  26.106 -16.950  1.00  0.00     0.096 A 
HETATM    9  N1  UNK   900      39.161  26.641 -17.725  1.00  0.00    -0.365 N 
HETATM   10  H6  UNK   900      39.023  26.421 -18.703  1.00  0.00     0.165 HD
HETATM   11  C8  UNK   900      37.272  28.304 -17.319  1.00  0.00     0.033 A 
HETATM   12  C10 UNK   900      36.692  29.125 -16.335  1.00  0.00     0.039 A 
BRANCH   6  13
HETATM   13  C2  UNK   900      40.975  26.312 -14.518  1.00  0.00     0.068 C 
BRANCH  13  14
HETATM   14  C5  UNK   900      42.338  25.776 -14.984  1.00  0.00     0.234 C 
BRANCH  14  15
HETATM   15  N2  UNK   900      43.453  26.596 -14.475  1.00  0.00    -0.079 N 
HETATM   16  H9  UNK   900      44.273  26.459 -15.050  1.00  0.00     0.274 HD
HETATM   17  H10 UNK   900      43.666  26.324 -13.526  1.00  0.00     0.274 HD
HETATM   18  H11 UNK   900      43.194  27.572 -14.488  1.00  0.00     0.274 HD
ENDBRANCH  14  15
ENDBRANCH  13  14
ENDBRANCH   6  13
ENDBRANCH   1   3
TORSDOF 4
ENDMDL
MODEL 6
REMARK VINA RESULT:    -6.593      2.743      5.088
REMARK INTER + INTRA:          -7.842
REMARK INTER:                  -7.758
REMARK INTRA:                  -0.084
REMARK UNBOUND:                -0.092
REMARK  4 active torsions:
REMARK  status: ('A' for Active; 'I' for Inactive)
REMARK    1  A    between atoms: O1_1  and  C9_12 
REMARK    2  A    between atoms: N2_3  and  C5_8 
REMARK    3  A    between atoms: C1_4  and  C2_5 
REMARK    4  A    between atoms: C2_5  and  C5_8 
ROOT
HETATM    1  O1  UNK   900      42.432  26.773 -12.444  1.00  0.00    -0.361 OA
HETATM    2  H13 UNK   900      41.820  27.016 -11.761  1.00  0.00     0.217 HD
ENDROOT
BRANCH   1   3
HETATM    3  C9  UNK   900      41.861  26.574 -13.663  1.00  0.00     0.066 A 
HETATM    4  C7  UNK   900      40.609  27.159 -13.926  1.00  0.00     0.050 A 
HETATM    5  C3  UNK   900      39.970  26.991 -15.177  1.00  0.00     0.001 A 
HETATM    6  C1  UNK   900      38.732  27.455 -15.747  1.00  0.00    -0.029 A 
HETATM    7  C4  UNK   900      40.644  26.197 -16.149  1.00  0.00     0.043 A 
HETATM    8  C6  UNK   900      38.670  26.935 -17.016  1.00  0.00     0.096 A 
HETATM    9  N1  UNK   900      39.816  26.191 -17.252  1.00  0.00    -0.365 N 
HETATM   10  H6  UNK   900      39.999  25.698 -18.116  1.00  0.00     0.165 HD
HETATM   11  C8  UNK   900      41.893  25.605 -15.895  1.00  0.00     0.033 A 
HETATM   12  C10 UNK   900      42.506  25.796 -14.644  1.00  0.00     0.039 A 
BRANCH   6  13
HETATM   13  C2  UNK   900      37.715  28.329 -15.083  1.00  0.00     0.068 C 
BRANCH  13  14
HETATM   14  C5  UNK   900      36.958  29.184 -16.111  1.00  0.00     0.234 C 
BRANCH  14  15
HETATM   15  N2  UNK   900      37.768  30.322 -16.583  1.00  0.00    -0.079 N 
HETATM   16  H9  UNK   900      38.703  30.011 -16.810  1.00  0.00     0.274 HD
HETATM   17  H10 UNK   900      37.820  31.023 -15.857  1.00  0.00     0.274 HD
HETATM   18  H11 UNK   900      37.341  30.729 -17.403  1.00  0.00     0.274 HD
ENDBRANCH  14  15
ENDBRANCH  13  14
ENDBRANCH   6  13
ENDBRANCH   1   3
TORSDOF 4
ENDMDL
MODEL 7
REMARK VINA RESULT:    -6.593      1.377      1.834
REMARK INTER + INTRA:          -7.841
REMARK INTER:                  -7.768
REMARK INTRA:                  -0.074
REMARK UNBOUND:                -0.092
REMARK  4 active torsions:
REMARK  status: ('A' for Active; 'I' for Inactive)
REMARK    1  A    between atoms: O1_1  and  C9_12 
REMARK    2  A    between atoms: N2_3  and  C5_8 
REMARK    3  A    between atoms: C1_4  and  C2_5 
REMARK    4  A    between atoms: C2_5  and  C5_8 
ROOT
HETATM    1  O1  UNK   900      38.482  26.271 -17.730  1.00  0.00    -0.361 OA
HETATM    2  H13 UNK   900      39.135  25.836 -18.262  1.00  0.00     0.217 HD
ENDROOT
BRANCH   1   3
HETATM    3  C9  UNK   900      38.935  26.686 -16.516  1.00  0.00     0.066 A 
HETATM    4  C7  UNK   900      40.182  26.217 -16.064  1.00  0.00     0.050 A 
HETATM    5  C3  UNK   900      40.707  26.619 -14.814  1.00  0.00     0.001 A 
HETATM    6  C1  UNK   900      41.920  26.338 -14.092  1.00  0.00    -0.029 A 
HETATM    7  C4  UNK   900      39.913  27.506 -14.031  1.00  0.00     0.043 A 
HETATM    8  C6  UNK   900      41.837  27.029 -12.908  1.00  0.00     0.096 A 
HETATM    9  N1  UNK   900      40.641  27.728 -12.881  1.00  0.00    -0.365 N 
HETATM   10  H6  UNK   900      40.344  28.305 -12.105  1.00  0.00     0.165 HD
HETATM   11  C8  UNK   900      38.664  27.977 -14.471  1.00  0.00     0.033 A 
HETATM   12  C10 UNK   900      38.172  27.565 -15.723  1.00  0.00     0.039 A 
BRANCH   6  13
HETATM   13  C2  UNK   900      43.046  25.463 -14.545  1.00  0.00     0.068 C 
BRANCH  13  14
HETATM   14  C5  UNK   900      44.344  25.785 -13.786  1.00  0.00     0.234 C 
BRANCH  14  15
HETATM   15  N2  UNK   900      45.501  25.064 -14.346  1.00  0.00    -0.079 N 
HETATM   16  H9  UNK   900      45.710  24.252 -13.781  1.00  0.00     0.274 HD
HETATM   17  H10 UNK   900      46.306  25.675 -14.357  1.00  0.00     0.274 HD
HETATM   18  H11 UNK   900      45.297  24.771 -15.291  1.00  0.00     0.274 HD
ENDBRANCH  14  15
ENDBRANCH  13  14
ENDBRANCH   6  13
ENDBRANCH   1   3
TORSDOF 4
ENDMDL
MODEL 8
REMARK VINA RESULT:    -6.484      2.887      5.227
REMARK INTER + INTRA:          -7.713
REMARK INTER:                  -7.615
REMARK INTRA:                  -0.098
REMARK UNBOUND:                -0.092
REMARK  4 active torsions:
REMARK  status: ('A' for Active; 'I' for Inactive)
REMARK    1  A    between atoms: O1_1  and  C9_12 
REMARK    2  A    between atoms: N2_3  and  C5_8 
REMARK    3  A    between atoms: C1_4  and  C2_5 
REMARK    4  A    between atoms: C2_5  and  C5_8 
ROOT
HETATM    1  O1  UNK   900      40.838  27.339 -11.935  1.00  0.00    -0.361 OA
HETATM    2  H13 UNK   900      41.064  26.589 -11.401  1.00  0.00     0.217 HD
ENDROOT
BRANCH   1   3
HETATM    3  C9  UNK   900      40.610  27.046 -13.245  1.00  0.00     0.066 A 
HETATM    4  C7  UNK   900      39.493  27.617 -13.879  1.00  0.00     0.050 A 
HETATM    5  C3  UNK   900      39.209  27.355 -15.240  1.00  0.00     0.001 A 
HETATM    6  C1  UNK   900      38.184  27.781 -16.157  1.00  0.00    -0.029 A 
HETATM    7  C4  UNK   900      40.095  26.479 -15.931  1.00  0.00     0.043 A 
HETATM    8  C6  UNK   900      38.450  27.160 -17.352  1.00  0.00     0.096 A 
HETATM    9  N1  UNK   900      39.594  26.391 -17.213  1.00  0.00    -0.365 N 
HETATM   10  H6  UNK   900      39.988  25.828 -17.955  1.00  0.00     0.165 HD
HETATM   11  C8  UNK   900      41.212  25.900 -15.306  1.00  0.00     0.033 A 
HETATM   12  C10 UNK   900      41.472  26.186 -13.953  1.00  0.00     0.039 A 
BRANCH   6  13
HETATM   13  C2  UNK   900      37.052  28.713 -15.860  1.00  0.00     0.068 C 
BRANCH  13  14
HETATM   14  C5  UNK   900      36.832  29.708 -17.011  1.00  0.00     0.234 C 
BRANCH  14  15
HETATM   15  N2  UNK   900      35.562  29.460 -17.717  1.00  0.00    -0.079 N 
HETATM   16  H9  UNK   900      35.166  28.579 -17.418  1.00  0.00     0.274 HD
HETATM   17  H10 UNK   900      35.730  29.426 -18.712  1.00  0.00     0.274 HD
HETATM   18  H11 UNK   900      34.910  30.205 -17.518  1.00  0.00     0.274 HD
ENDBRANCH  14  15
ENDBRANCH  13  14
ENDBRANCH   6  13
ENDBRANCH   1   3
TORSDOF 4
ENDMDL
MODEL 9
REMARK VINA RESULT:    -6.310      1.836      2.405
REMARK INTER + INTRA:          -7.510
REMARK INTER:                  -7.473
REMARK INTRA:                  -0.037
REMARK UNBOUND:                -0.092
REMARK  4 active torsions:
REMARK  status: ('A' for Active; 'I' for Inactive)
REMARK    1  A    between atoms: O1_1  and  C9_12 
REMARK    2  A    between atoms: N2_3  and  C5_8 
REMARK    3  A    between atoms: C1_4  and  C2_5 
REMARK    4  A    between atoms: C2_5  and  C5_8 
ROOT
HETATM    1  O1  UNK   900      41.132  25.654 -17.720  1.00  0.00    -0.361 OA
HETATM    2  H13 UNK   900      41.959  26.023 -18.001  1.00  0.00     0.217 HD
ENDROOT
BRANCH   1   3
HETATM    3  C9  UNK   900      40.679  26.135 -16.530  1.00  0.00     0.066 A 
HETATM    4  C7  UNK   900      41.565  26.179 -15.439  1.00  0.00     0.050 A 
HETATM    5  C3  UNK   900      41.153  26.675 -14.180  1.00  0.00     0.001 A 
HETATM    6  C1  UNK   900      41.801  26.859 -12.907  1.00  0.00    -0.029 A 
HETATM    7  C4  UNK   900      39.802  27.114 -14.065  1.00  0.00     0.043 A 
HETATM    8  C6  UNK   900      40.852  27.378 -12.061  1.00  0.00     0.096 A 
HETATM    9  N1  UNK   900      39.666  27.533 -12.759  1.00  0.00    -0.365 N 
HETATM   10  H6  UNK   900      38.813  27.890 -12.347  1.00  0.00     0.165 HD
HETATM   11  C8  UNK   900      38.908  27.070 -15.148  1.00  0.00     0.033 A 
HETATM   12  C10 UNK   900      39.350  26.579 -16.390  1.00  0.00     0.039 A 
BRANCH   6  13
HETATM   13  C2  UNK   900      43.225  26.543 -12.576  1.00  0.00     0.068 C 
BRANCH  13  14
HETATM   14  C5  UNK   900      44.194  27.329 -13.474  1.00  0.00     0.234 C 
BRANCH  14  15
HETATM   15  N2  UNK   900      45.241  26.463 -14.044  1.00  0.00    -0.079 N 
HETATM   16  H9  UNK   900      45.553  26.834 -14.931  1.00  0.00     0.274 HD
HETATM   17  H10 UNK   900      44.870  25.534 -14.187  1.00  0.00     0.274 HD
HETATM   18  H11 UNK   900      46.025  26.410 -13.408  1.00  0.00     0.274 HD
ENDBRANCH  14  15
ENDBRANCH  13  14
ENDBRANCH   6  13
ENDBRANCH   1   3
TORSDOF 4
ENDMDL
MODEL 10
REMARK VINA RESULT:    -6.297      2.461      3.593
REMARK INTER + INTRA:          -7.494
REMARK INTER:                  -7.404
REMARK INTRA:                  -0.090
REMARK UNBOUND:                -0.092
REMARK  4 active torsions:
REMARK  status: ('A' for Active; 'I' for Inactive)
REMARK    1  A    between atoms: O1_1  and  C9_12 
REMARK    2  A    between atoms: N2_3  and  C5_8 
REMARK    3  A    between atoms: C1_4  and  C2_5 
REMARK    4  A    between atoms: C2_5  and  C5_8 
ROOT
HETATM    1  O1  UNK   900      39.178  26.591 -16.138  1.00  0.00    -0.361 OA
HETATM    2  H13 UNK   900      39.358  27.188 -16.852  1.00  0.00     0.217 HD
ENDROOT
BRANCH   1   3
HETATM    3  C9  UNK   900      39.972  26.766 -15.046  1.00  0.00     0.066 A 
HETATM    4  C7  UNK   900      41.263  26.210 -15.055  1.00  0.00     0.050 A 
HETATM    5  C3  UNK   900      42.135  26.364 -13.953  1.00  0.00     0.001 A 
HETATM    6  C1  UNK   900      43.481  25.941 -13.664  1.00  0.00    -0.029 A 
HETATM    7  C4  UNK   900      41.644  27.095 -12.833  1.00  0.00     0.043 A 
HETATM    8  C6  UNK   900      43.770  26.398 -12.402  1.00  0.00     0.096 A 
HETATM    9  N1  UNK   900      42.673  27.090 -11.914  1.00  0.00    -0.365 N 
HETATM   10  H6  UNK   900      42.637  27.514 -10.997  1.00  0.00     0.165 HD
HETATM   11  C8  UNK   900      40.354  27.653 -12.812  1.00  0.00     0.033 A 
HETATM   12  C10 UNK   900      39.512  27.488 -13.927  1.00  0.00     0.039 A 
BRANCH   6  13
HETATM   13  C2  UNK   900      44.383  25.157 -14.564  1.00  0.00     0.068 C 
BRANCH  13  14
HETATM   14  C5  UNK   900      45.708  24.814 -13.865  1.00  0.00     0.234 C 
BRANCH  14  15
HETATM   15  N2  UNK   900      46.875  25.179 -14.689  1.00  0.00    -0.079 N 
HETATM   16  H9  UNK   900      47.729  25.001 -14.178  1.00  0.00     0.274 HD
HETATM   17  H10 UNK   900      46.828  26.161 -14.924  1.00  0.00     0.274 HD
HETATM   18  H11 UNK   900      46.874  24.637 -15.541  1.00  0.00     0.274 HD
ENDBRANCH  14  15
ENDBRANCH  13  14
ENDBRANCH   6  13
ENDBRANCH   1   3
TORSDOF 4
ENDMDL
