MODEL 6
REMARK VINA RESULT:    -6.593      2.743      5.088
REMARK INTER + INTRA:          -7.842
REMARK INTER:                  -7.758
REMARK INTRA:                  -0.084
REMARK UNBOUND:                -0.092
REMARK  4 active torsions:
REMARK  status: ('A' for Active; 'I' for Inactive)
REMARK    1  A    between atoms: O1_1  and  C9_12 
REMARK    2  A    between atoms: N2_3  and  C5_8 
REMARK    3  A    between atoms: C1_4  and  C2_5 
REMARK    4  A    between atoms: C2_5  and  C5_8 
ROOT
HETATM    1  O1  UNK   900      42.432  26.773 -12.444  1.00  0.00    -0.361 OA
HETATM    2  H13 UNK   900      41.820  27.016 -11.761  1.00  0.00     0.217 HD
ENDROOT
BRANCH   1   3
HETATM    3  C9  UNK   900      41.861  26.574 -13.663  1.00  0.00     0.066 A 
HETATM    4  C7  UNK   900      40.609  27.159 -13.926  1.00  0.00     0.050 A 
HETATM    5  C3  UNK   900      39.970  26.991 -15.177  1.00  0.00     0.001 A 
HETATM    6  C1  UNK   900      38.732  27.455 -15.747  1.00  0.00    -0.029 A 
HETATM    7  C4  UNK   900      40.644  26.197 -16.149  1.00  0.00     0.043 A 
HETATM    8  C6  UNK   900      38.670  26.935 -17.016  1.00  0.00     0.096 A 
HETATM    9  N1  UNK   900      39.816  26.191 -17.252  1.00  0.00    -0.365 N 
HETATM   10  H6  UNK   900      39.999  25.698 -18.116  1.00  0.00     0.165 HD
HETATM   11  C8  UNK   900      41.893  25.605 -15.895  1.00  0.00     0.033 A 
HETATM   12  C10 UNK   900      42.506  25.796 -14.644  1.00  0.00     0.039 A 
BRANCH   6  13
HETATM   13  C2  UNK   900      37.715  28.329 -15.083  1.00  0.00     0.068 C 
BRANCH  13  14
HETATM   14  C5  UNK   900      36.958  29.184 -16.111  1.00  0.00     0.234 C 
BRANCH  14  15
HETATM   15  N2  UNK   900      37.768  30.322 -16.583  1.00  0.00    -0.079 N 
HETATM   16  H9  UNK   900      38.703  30.011 -16.810  1.00  0.00     0.274 HD
HETATM   17  H10 UNK   900      37.820  31.023 -15.857  1.00  0.00     0.274 HD
HETATM   18  H11 UNK   900      37.341  30.729 -17.403  1.00  0.00     0.274 HD
ENDBRANCH  14  15
ENDBRANCH  13  14
ENDBRANCH   6  13
ENDBRANCH   1   3
TORSDOF 4
ENDMDL